% Model:              PandaNufern.mph
% Version:            COMSOL 5.2.1.262
% Date:               Apr 29 2018, 10:23
% Dimension:          2
% Nodes:              715
% Expressions:        1
% Description:        Electric field, x component
% Length unit:        µm
% X                       Y                        ewfd.Ex (V/m) @ Effective mode index=2
-57.74247519733757        -23.917703863139884      -0.06288364630985427-189.92176943226193i
-54.12659676605851        -31.249984360388137      -0.05346323466364835-161.47018827750125i
-49.22896736421808        -23.96183232218931       -0.06689827394409502-202.04682536837112i
-49.58459758269952        -38.047571309634854      -0.04479406069329728-135.28748466622176i
-45.6754488053792         -31.128152911612073      -0.05537675152548784-167.2494663775176i
-60.370365978924674       -16.176183467390963      -0.07228421476329368-218.31339328787726i
-52.24136710929765        -17.471064836252967      -0.076988721294644-232.52202715008357i
-34.516117252592096       -16.907237650214775      -0.07853655497167318-237.19697122930393i
-38.74129481322474        -15.160467175792771      -0.08471198548337067-255.84798700725287i
-38.59831876190552        -18.7420312032154        -0.07592925954525372-229.32235649524006i
-42.371914253989296       -12.376822600810605      -0.09101734093050524-274.8914108010448i
-43.39785612574024        -16.04802362896869       -0.082612706081131-249.50768442715494i
-45.156998631168044       -8.747307728368188       -0.09662583336846786-291.83017218911493i
-47.04675137259599        -11.769405089697536      -0.09000280514926277-271.82726201142464i
-44.19419082902029        -44.19415681929161       -0.03697137204347905-111.66135424318168i
-41.44381244573625        -36.49481716166091       -0.0468604563796139-141.52850784359012i
-29.999999999999993       -17.5                    -0.07307429058024983-220.69984071163876i
-33.38407623740046        -21.206707053972053      -0.06731607405461838-203.3088181008493i
-38.047609467547595       -49.58456830310194       -0.029788115308956146-89.9664182901028i
-36.60078647161762        -41.74628897609738       -0.038516506301778414-116.32805838430404i
-61.96530435315178        -8.15788308455493        -0.07963076203522378-240.50144845325164i
-55.13669763836471        -10.880826890099781      -0.08469137237752543-255.7855773109231i
-46.90634484675456        -4.519458366067318       -0.10054573975705196-303.6690339310353i
-48.91382387974361        -6.971168226834787       -0.09594336877795842-289.76893832254393i
-47.49999999999999        0                        -0.10203707517606973-308.17310654233i
-50.58814018890604        -2.4858172780351846      -0.09786111686821597-295.56087567628583i
-25.716334845237114       -16.96762248642603       -0.06858622142085478-207.1449691526692i
-27.267682624625227       -20.6533573818632        -0.06214940805043955-187.70445179840758i
-21.678113241471163       -15.394680924859163      -0.06470739264523064-195.43011410646693i
-24.099278457183974       -19.635657925772403      -0.05980975478951998-180.6382299961462i
-18.15062409983721        -12.877976967545843      -0.06166680753238568-186.2469140992156i
-18.589273098487535       -17.516077200564297      -0.053681499245705214-162.12965374815343i
-31.250026013690796       -54.126572717507685      -0.02310650867449651-69.78654467268275i
-31.213919178489462       -46.11744233924528       -0.031101946661373326-93.93453323822479i
-62.5                     0                        -0.08247313191069218-249.08591535356106i
-55.02898657386915        -3.7862788646288132      -0.09158621575078435-276.60937615829323i
-4.995025606939343        -8.663124100809144       -0.026069054464369155-78.73432764433711i
-7.069665287325724        -7.072470058273961       -0.03757206525380169-113.47576435295665i
-7.343151218927104        -9.116323841529974       -0.03472930345993715-104.8900696289246i
-46.90723765037648        4.51611725198674         -0.10053985598280572-303.6511209548211i
-50.65612930147544        3.202468256395894        -0.09741727297797564-294.2202857225768i
-15.46439834575513        -9.745064625189197       -0.05990223234330617-180.91749738322437i
-14.035163123086143       -13.366257641671513      -0.04970918961048898-150.13244726882746i
-2.580638429706952        -9.66127865735792        -0.013249656637113381-40.017105991161884i
-4.9908955031545865       -10.91551631022336       -0.02276049271443487-68.74181010541659i
-23.917748299048824       -57.74245679137099       -0.016846654528937903-50.88044146333442i
-25.011982079036557       -49.99022146495192       -0.023744764052141862-71.71426703508715i
-61.96530422282485        8.157884074486772        -0.07961503436601136-240.4537715951174i
-55.702596593247094       3.504611600552814        -0.09086644321636972-274.4354099533146i
-8.661142074254833        -4.9984615602775815      -0.04685536069236102-141.51318693518107i
-9.523140856860685        -7.345283012584006       -0.04538531916155074-137.07340015375635i
-45.16046717642664        8.741294812125377        -0.09669420185838068-292.03638778454547i
-51.23935583967751        7.639556981232989        -0.09285163548599622-280.4310442012156i
-13.756159841545358       -6.510580381699964       -0.05967016889940851-180.2165670971243i
-11.413225912852118       -9.281575740019          -0.048427023468414446-146.2599998253442i
-9.660768483409795        -2.5825476394358984      -0.05307940727136549-160.31101739297657i
-11.155462655361388       -4.318095657302553       -0.054907839379211815-165.83330571389138i
0                         -10                      -3.0693461529586344E-5-0.09309665786051306i
-1.613058515436696        -12.261920776037766      -0.007126613506412513-21.52426747230523i
-16.17624725909467        -60.370348885960816      -0.010958643287263559-33.09739410808387i
-18.318995581643186       -52.810990481734194      -0.016858910742619814-50.91754223498182i
-60.370348885960816       16.17624725909467        -0.07223223407419523-218.15612884413386i
-55.862023392506266       10.432053791357983       -0.08451108739818743-255.24082719991995i
-42.376822602161205       12.371914252638163       -0.09098665607141089-274.7983762959935i
-45.75683224498021        13.587944864671183       -0.08717325121357171-263.2810882777701i
-12.802256336628947       -3.2384584124211013      -0.060519089400891894-182.78040994888946i
-10                       0                        -0.05528949926365251-166.98585967927636i
-11.143575102111082       -2.062892644891874       -0.057064739153919145-172.34752547585532i
2.5825476394358984        -9.660768483409795       0.013169427617333323+39.77403987968276i
0.5669529123771764        -12.231611658278391      0.0024630905641846858+7.438638697569057i
-8.157884074486772        -61.96530422282485       -0.00536359363630532-16.199161588627078i
-11.324234205110308       -54.66075532803472       -0.010224637724870644-30.88067646338793i
-57.74245679137099        23.917748299048824       -0.06286521645384287-189.865767503265i
-54.07968939256204        17.776263193864395       -0.07528653839425631-227.3807281865452i
-38.7473077304591         15.156998629961347       -0.08469398593558201-255.7931698815637i
-43.33775793795877        16.718545020100176       -0.08118051885425735-245.18176678415657i
-12.499999999999995       0                        -0.06117384531360893-184.7578031550348i
-9.66127865735792         2.580638429706952        -0.0530976382911267-160.36588463258616i
-11.184078076129147       2.0546162869646283       -0.05717874153292948-172.69168799825565i
4.9984615602775815        -8.661142074254833       0.026069244030879974+78.73421131772524i
4.691635455762672         -11.191756344134225      0.02114978858935695+63.876394894671854i
0                         -62.5                    1.5710118780804132E-5+0.047448695003785846i
-4.144299962862689        -55.60759467581839       -0.0037019011744768592-11.180677365842541i
-54.126572717507685       31.250026013690796       -0.053397222553489776-161.27044726201055i
-49.93433961864069        24.399988299575405       -0.0659774014790666-199.26516952691495i
-34.51945836904835        16.906344845957644       -0.07853315930159738-237.1861679390268i
-37.19059171878736        19.622755376257327       -0.07329489325158829-221.3654997388498i
-12.796162309182579       3.205927121443987        -0.06053632166811059-182.8322364996701i
-8.663124100809144        4.995025606939343        -0.046893988893011516-141.62947650738607i
-10.96294941410524        4.486515883672204        -0.05415936507468302-163.57245774608256i
7.072470058273961         -7.069665287325724       0.037603907481007164+113.57135671706567i
6.491130567268198         -9.836677367743162       0.030264956201878128+91.40613390878059i
8.15788308455493          -61.96530435315178       0.005394596585319375+16.29277649735485i
3.1406918097984633        -55.612903716826544      0.002838125942749866+8.571544114198488i
-49.58456830310194        38.047609467547595       -0.04476190005692613-135.1899926289093i
-46.787166829187186       30.86166956225685        -0.055755049482912857-168.39152733767946i
-29.999999999999993       17.5                     -0.07308390182625492-220.72826129197423i
-31.543140236938374       20.46393025880574        -0.06733402501296533-203.36241281775511i
-13.79056290561236        6.595767512813814        -0.05969181208721602-180.2815449269721i
-7.072470058273961        7.069665287325724        -0.037602413868561405-113.56690626738855i
-10.397524387131313       7.204430507875971        -0.048473912533592754-146.40111553029294i
-4.9984615602775815       8.661142074254833        -0.026062491143625514-78.71386831961335i
-7.040618299896239        9.62793992752999         -0.032725384305222524-98.83719573246792i
8.663124100809144         -4.995025606939343       0.046906647063688+141.66763751047785i
10.177836146267474        -7.296069824270198       0.04762468626717744+143.83622705855407i
16.176183467390963        -60.370365978924674      0.010987064038388237+33.183150879741i
10.405030615040534        -54.71108322643957       0.009454512112992563+28.554394382564464i
-44.19415681929161        44.19419082902029        -0.03696144665721273-111.63103290506069i
-42.143132569139155       36.351274566483355       -0.04719094029931462-142.52613567480185i
-25.857175421148415       17.00255876357624        -0.0687354433864679-207.59500183089276i
-26.261024763894742       19.790331710490616       -0.06266206444027336-189.25210578232443i
-21.935616109849477       15.531120773217907       -0.06495762500180446-196.1852150028726i
-23.180874814536985       19.48883549279128        -0.0585945451997944-176.96734018218945i
-2.5825476394358984       9.660768483409795        -0.01318875464138126-39.83246150285155i
-4.031390078844606        11.272089032242523       -0.01825871115828249-55.144768965032824i
-15.691746931124058       10.075906615139026       -0.05998447904505048-181.1653755671438i
-11.688891822706976       10.510921462725548       -0.04736295368941146-143.0457118885212i
-18.473505822311324       13.167761084243178       -0.06192244086010656-187.018366995562i
-14.633754594918223       14.207274110920423       -0.04996572969543086-150.90657891024844i
9.66127865735792          -2.580638429706952       0.05309857015146191+160.36864281551462i
10.9953198971291          -4.451424208347501       0.054295028184358225+163.98213342075903i
10                        0                        0.05529652765252702+167.00701231527256i
11.130216187065649        -2.080527027737256       0.057021402744964346+172.21642922022787i
15.464503439539724        -9.74522137977622        0.05988195287452377+180.85571388697193i
13.755651133399684        -6.5093110157820195      0.059713240679294774+180.346231396832i
12.156650963079182        -10.269162415834064      0.049195108349449686+148.57918456052022i
23.917703863139884        -57.74247519733757       0.016871603968164797+50.955634675519i
17.597247930854977        -52.80583694934822       0.0163272908085938+49.31160369741724i
-38.047571309634854       49.58459758269952        -0.029800458180719833-90.0034103521643i
-36.86311321439006        41.512759184032106       -0.038899841647930825-117.48531393433653i
-17.06908522119128        16.878166460056654       -0.051443384124684195-155.36936604263056i
0                         10                       1.3912463268140326E-5+0.04236220097172022i
-1.8249642236670176       12.212849869795638       -0.008041071087714359-24.285342521786657i
7.069665287325724         7.072470058273961        0.03755070868372404+113.4112125472702i
8.661142074254833         4.9984615602775815       0.04694332441361331+141.77879025693937i
9.22763839636556          6.659456342553113        0.04562135829297142+137.78623171267705i
9.660768483409795         2.5825476394358984       0.053120420890786356+160.43482844721092i
11.160134991608945        2.0916507829544235       0.05709114877526818+172.42722433937132i
12.802235480538377        -3.238347654768875       0.06052493776115265+182.7978083184944i
12.499999999999995        0                        0.06117654173541606+184.7658927448036i
18.152497596138094        -12.879700570684335      0.06165588493168289+186.21333034810115i
14.455800570705682        -13.87232558623027       0.050070773166331635+151.22383541769997i
21.681591836387014        -15.396560837522673      0.0647222674086479+195.47443664356516i
17.95571424431891         -17.214227888675797      0.05291403261652963+159.81106311222092i
25.71792606319147         -16.968024127744073      0.06858231937167635+207.13261470442913i
22.385687634282558        -19.589057070035796      0.05710818685665947+172.47829685301076i
29.999999999999993        -17.5                    0.07305886288317674+220.65274060324884i
27.22212318520401         -20.842728002500856      0.06177007753271661+186.5582069385041i
31.249984360388137        -54.12659676605851       0.023131115287355213+69.8606144835372i
24.383943627246868        -49.96406564605592       0.023369160424908303+70.579499291689i
-31.249984360388137       54.12659676605851        -0.023126385840249262-69.8463777844853i
-30.943816782975237       45.96550446615862        -0.031137842773036852-94.04250184073858i
2.580638429706952         9.66127865735792         0.013259551442049657+40.04694384358599i
2.0619373595483883        12.434424136227808       0.0089897497956893+27.151296471738238i
4.995025606939343         8.663124100809144        0.026074735046074028+78.7514339618389i
4.935407619101589         10.706848649111233       0.022781787566541596+68.80609152811726i
7.509796390326767         9.273194035080133        0.03510057755997523+106.01135751297284i
10.843763943665618        4.66988529074007         0.0535911480536988+161.8565875061192i
12.796142530969309        3.2058209845961483       0.060546892448545976+182.86433506492912i
34.51945836904835         -16.906344845957644      0.07854096295997598+237.20987491899066i
32.198968932506006        -21.274417423876702      0.06620194794431644+199.94341849693967i
38.047571309634854        -49.58459758269952       0.02981570238919377+90.04943830059837i
30.50085837741622         -46.279288527209644      0.030575154714732294+92.34307541070449i
-23.917703863139884       57.74247519733757        -0.01686860884554429-50.94665112059625i
-24.55559171559276        49.66526632266699        -0.02373790169245757-71.69319923974668i
13.791107739583007        6.597106311876           0.05967069797208359+180.2181384577088i
38.7473077304591          -15.156998629961347      0.08470968483284622+255.84077208026326i
37.76188373848528         -18.492728447221104      0.07618147750340565+230.0837637809641i
44.19415681929161         -44.19419082902029       0.03698064740942516+111.68907927460513i
36.350659097808496        -41.95553730002285       0.03818538434069141+115.32754671045105i
-16.176183467390963       60.370365978924674       -0.01097908723703951-33.15909792233894i
-17.75670057554843        52.492499077705006       -0.016643200951128964-50.26575316898405i
15.692425457594334        10.076870085175521       0.060010003842875664+181.24299443451423i
12.610151445864137        9.490106006833628        0.05182930232952687+156.53556627072163i
42.376822602161205        -12.371914252638163      0.09098207235307987+274.78476516280875i
41.82061415542276         -16.300026459448667      0.08211665358173288+248.00930111542021i
49.58456830310194         -38.047609467547595      0.044799609284897846+135.3040488950414i
41.44527355133376         -36.87346834842606       0.04633560483677324+139.94295921575153i
-8.15788308455493         61.96530435315178        -0.0053845809855518146-16.262541887155674i
-10.725131932126649       54.4565747243187         -0.00981635739451014-29.647257305502766i
18.473058285660812        13.167369316390701       0.06190927705005369+186.97924893606395i
15.378041447500726        14.496448885446076       0.05145747981825102+155.41267620614795i
45.16046717642664         -8.741294812125377       0.09663413824926545+291.85524565014833i
45.709414761032185        -13.542549397324214      0.08726056469654833+263.5450573497836i
54.126572717507685        -31.250026013690796      0.053450037289311414+161.43020617546733i
46.023737835319054        -30.750098548634824      0.05595707073368078+169.00188594143754i
0                         62.5                     -1.4075771547435573E-6-0.004252506025827903i
-3.565574818577955        55.267873172905226       -0.0032513495552425596-9.819548904425751i
21.933335662388956        15.52993646040814        0.0649374902904255+196.1251023553938i
18.5710475942096          17.437780022676183       0.053821307880894786+162.55196089903498i
46.90723765037648         -4.51611725198674        0.10058578859089931+303.7901136914337i
49.456364921852995        -8.567052092026147       0.09332043776076737+281.84721268275655i
57.74245679137099         -23.917748299048824      0.06288144175337143+189.91504236492503i
49.00595073147377         -23.155797064943005      0.06837773912408177+206.51495633167656i
8.157884074486772         61.96530422282485        0.0053782991852942925+16.243574898175012i
3.668432666225823         55.30354140899263        0.003333574052828477+10.068287017381962i
25.856397910378384        17.002369297332752       0.06874244705888101+207.61686301373388i
22.444130605996477        19.31650535335668        0.05771066090096181+174.29861399571973i
47.49999999999999         0                        0.1020340797793659+308.1643030900656i
50.621105506050775        -2.907584461419171       0.09761321007000395+294.8123340088299i
60.370348885960816        -16.17624725909467       0.07223900727527371+218.1768780573345i
53.090116408770676        -17.211397242470778      0.07686783499332062+232.1568702473592i
16.17624725909467         60.370348885960816       0.01097605453428283+33.14996480162418i
10.848203143163856        54.22885626494485        0.010002006289993504+30.20832651703746i
29.999999999999993        17.5                     0.07307718014583214+220.7086453869332i
26.43932973215219         20.376139547022575       0.061667413243273926+186.2488117080702i
46.90634484675456         4.519458366067318        0.10059529679272025+303.81892422552124i
50.6022560073106          2.7306459875295586       0.09772418607557173+295.1475577161608i
61.96530422282485         -8.157884074486772       0.07963738187041951+240.52155800086996i
54.28415787701793         -9.923724031705472       0.08681248311144794+262.1918389113056i
23.917748299048824        57.74245679137099        0.016871168590248745+50.95446503073823i
17.790634591706024        52.11469278602655        0.016906008047776425+51.059844793203155i
34.516117252592096        16.907237650214775       0.07855017073496239+237.238199900361i
33.07569354108468         21.061235481811664       0.06738478978161984+203.51645448234277i
38.74129481322474         15.160467175792771       0.08473073635854253+255.904766320173i
38.610947145500106        18.506623179560147       0.07646934781526088+230.95367931724803i
42.371914253989296        12.376822600810605       0.09102705352862674+274.92092290252094i
45.156998631168044        8.747307728368188        0.09659604190935135+291.7403953092562i
46.781215152278826        11.329398839594809       0.0909844997297794+274.7923840006533i
49.17126077790098         8.716910490391083        0.09339586930914635+282.075196888297i
62.5                      0                        0.08245906631407136+249.04368458588453i
55.43064360810474         -3.3849809042661407      0.09125121781205636+275.59779439640096i
31.250026013690796        54.126572717507685       0.023129986186859214+69.8574501553685i
24.510223304517208        49.51780932484178        0.023830372994224167+71.97287874543092i
42.86493855715858         15.748567748256118       0.08333328012869315+251.68414992703202i
61.96530435315178         8.15788308455493         0.07964920982686664+240.55738612258747i
55.414127740061225        3.336769613635203        0.09129949077562356+275.74364570392305i
38.047609467547595        49.58456830310194        0.02980994295218903+90.03237200696526i
30.665349053167994        46.05047193544253        0.030900952697023268+93.32753486718758i
60.370365978924674        16.176183467390963       0.0722868878311119+218.32169037995735i
54.25799030419385         10.23503155650721        0.08643554662590261+261.0535756502615i
44.19419082902029         44.19415681929161        0.03696825208244974+111.65202439678495i
36.66723146572643         41.702587585665924       0.0385984115623361+116.57551174291011i
57.74247519733757         23.917703863139884       0.06286215465579696+189.85702467676057i
51.96355331430191         17.29203506731693        0.07748374349901563+234.0173034404663i
49.58459758269952         38.047571309634854       0.044777088341823666+135.23636529682173i
41.872560408476346        36.472264520171095       0.04697017713940363+141.86002525425343i
54.12659676605851         31.249984360388137       0.053413563826375604+161.3203113240656i
49.87080623666244         24.520662801171202       0.06578816675273823+198.69423385804342i
46.35528583059991         30.581501155571825       0.056216253425796926+169.7850838701791i
-46.75539601357258        -19.013604165927127      -0.07620824693355642-230.16487747105046i
-44.32319576102648        -21.591741793632607      -0.07131804030251884-215.39547129867196i
-40.91491185701669        -21.74685025570954       -0.07036444942904137-212.51546586549867i
-42.12182888874771        -18.717119703874356      -0.07683549978892014-232.05935406971864i
-46.99837521673662        -14.971666410873716      -0.08391659209734065-253.44565746481075i
-50.17515617366617        -13.149434714716005      -0.08557557095207757-258.45608090260333i
-49.71786954959467        -9.829382569156662       -0.09124252886519187-275.5714500802653i
-36.69696955551609        -21.178043142920703      -0.06966002820647495-210.3880136094015i
-43.07466199059366        -25.412621740514805      -0.06423692869135135-194.0090701385593i
-39.2433186894701         -24.042749076546393      -0.06534143493567186-197.34494370544917i
-50.60650688688685        -5.0925190911345375      -0.09607090996029227-290.1541134528316i
-51.87778960202942        -7.458152765223667       -0.09226690117952015-278.66523380889396i
-35.98244847984986        -24.289615080520747      -0.06310698451061214-190.5964770592911i
-37.92492656386692        -28.93071702712337       -0.05651330268286456-170.68216964335554i
-30.2288502002763         -21.970437057024316      -0.06283316638884866-189.7695299142827i
-51.85485732836721        0.2803565914647895       -0.09682024059123298-292.41717084904894i
-6.661815616450491        -10.429196800601934      -0.030052403495088142-90.76487835269893i
-8.695611805419265        -10.725434104510335      -0.0370670475222075-111.95055049137908i
-8.769074782817114        -8.725749437489656       -0.040510866488188205-122.35156614332641i
-34.53149987608873        -34.99965533154994       -0.045887251067263594-138.58930069794508i
-32.616965374017425       -26.149718026131183      -0.05741648075302904-173.41000374685305i
-32.30474993786413        -30.322613547219692      -0.05071688748425131-153.1758348231705i
-28.288949126185123       -24.444295025491076      -0.05616142642849085-169.619501967766i
-30.217537562150707       -39.108259272878115      -0.03803028318686832-114.85961648318776i
-20.922664806446907       -20.52740189507335       -0.052731185555986715-159.2594991992494i
-15.195008703138049       -17.14895508326326       -0.046471697295751575-140.35457097227246i
-7.018012919295623        -13.022016130095313      -0.02800152807452846-84.5708358957469i
-3.903202953748513        -12.556097730057205      -0.016598055002949606-50.12998727429984i
-10.624514400169911       -13.560982829720519      -0.03928239803531443-118.64139144016563i
-3.1365946185620133       -14.243388318136734      -0.012341204706824397-37.273431847644666i
-5.068771026453124        -14.642347083922603      -0.019247601792496263-58.132178627113134i
-4.184644743938702        -16.300885358048788      -0.014923494074200811-45.07249348477644i
-11.54855194813836        -17.431154364426575      -0.036627386365675675-110.62272660225574i
-10.98899648718724        -6.480561002028932       -0.05140516860204315-155.25456235711613i
-1.1669587643103632       -14.17980181506887       -0.004660667477015102-14.076614241865252i
-2.3791218813891337       -16.61940235746935       -0.008433468708822887-25.471275054270848i
-24.314778162891546       -24.415834660465656      -0.051321121519114124-155.00079065529465i
-28.69719102401891        -33.39524787385574       -0.04360308370467206-131.69067172865644i
-27.75316685132866        -28.137729477438214      -0.049721812315841274-150.1705294669364i
-25.479111278563426       -43.085324084770605      -0.030287552442081218-91.4749283456963i
-25.39795751346865        -37.21172608722945       -0.03607719123580956-108.96088669591195i
-17.20887174114382        -21.48949773160642       -0.04414808520995809-133.33677971290777i
-19.83939514558107        -24.474132860209394      -0.04453368156187159-134.50133951085724i
-13.195901918044457       -21.80658456216368       -0.03517296216865377-106.23006195310131i
-19.571993261363286       -45.92658125527307       -0.022672824391568456-68.4768587589959i
-7.101293670801863        -17.08916780763969       -0.023924128959939086-72.25627120995314i
-3.986195276327408        -18.33519855735728       -0.013053852449788383-39.425801205498466i
-9.139323647670818        -21.61479818646549       -0.02552097849316753-77.0790999762165i
-49.930518904259756       12.42944419180932        -0.08697710062365631-262.68868019856154i
0.8530101479123591        -14.395475704642303      0.0033486831852489645+10.11329600234738i
-0.1756324886651324       -16.85075440637126       -6.293670299731173E-4-1.901265696718447i
-1.6482058463047635       -19.68927577631816       -0.005194497039534348-15.688926802399017i
-21.98467732931065        -31.15112928398187       -0.039077904259880794-118.02372475917694i
-19.82217974473461        -39.27265576088829       -0.028283170632114444-85.42134082309961i
-15.500929931206015       -27.334345434707814      -0.033495194959927005-101.16283848565878i
-10.848600138135883       -25.55103922931943       -0.026018965665478712-78.58311710494644i
-13.53175122332167        -47.96061628110219       -0.015420567126472592-46.57354584270585i
-15.295783987482004       -42.441954966125095      -0.020603471745016064-62.22706110809861i
-5.240335404420955        -21.805959951080972      -0.014926918898178865-45.08286298520915i
-6.897772190427784        -25.99643687988452       -0.016770041194420104-50.649474167364595i
-7.647105763354432        -49.250539514140634      -0.008587694411343832-25.936896706857027i
-48.004626791226414       17.657302305174838       -0.07848595556413684-237.04362276912693i
2.714146214458211         -12.918786903362154      0.01140809026513852+34.45440319137822i
2.4042054553751413        -15.731212047930747      0.008842097333007734+26.704540652946463i
1.5628186208024386        -19.199425106504176      0.004975834384392752+15.027594425164716i
-0.529398911184668        -22.823690598979184      -0.0014827440275286291-4.478677584302235i
-13.919895998173457       -36.241164076212485      -0.02307129050275637-69.68045736215609i
-9.509073003330334        -31.003031083375653      -0.01919131766549849-57.96220409753831i
-9.533592419807844        -42.71383528411385       -0.013254460347387977-40.031575112719715i
-4.003528765606342        -44.67877818759198       -0.005327998513238149-16.092040595868358i
-2.3990851536654803       -26.1104136885836        -0.0058791929012503704-17.756877638231124i
-4.591320366343584        -29.214939659637995      -0.010095776483037772-30.491824468336716i
-0.8777732619397273       -49.65582970399003       -9.92125875087495E-4-2.9967393575780203i
-44.580574707604875       21.51187326767815        -0.07151844275895848-216.0002589255713i
4.536967462184105         -14.083199644567664      0.017744137114853415+53.5905813392529i
4.588318218847752         -17.2832392938977        0.015645154172977144+47.25118529756878i
4.471256118136058         -21.921677250831177      0.012736319335907064+38.46586212211863i
1.5264799407867125        -25.792117189325992      0.003830185711540435+11.56746883214976i
-4.0019062029968335       -36.71842054242439       -0.006925001604734212-20.9154048117804i
2.0342153890976573        -43.36151638029764       0.002848966891908901+8.604055272669067i
0.6932337036369037        -30.307114973525415      0.0014973293980292412+4.521748762926908i
5.353387721288979         -49.42364574926491       0.006055166087588971+18.287539431509035i
7.943973695824849         -43.74650961464443       0.010750529619033309+32.468442135330214i
-40.560383551320825       20.025236800477362       -0.0737392277334231-222.70748608628367i