% Model:              Dz11_comsol.mph
% Version:            COMSOL 5.2.1.262
% Date:               May 8 2018, 16:39
% Dimension:          2
% Nodes:              12582
% Expressions:        1
% Description:        Surface
% x                       y                        Color
-7.000000000000001        -7.300000000000001       4.543872971638254
-7                        -7.499999999999999       4.560725523536653
-6.8699737125719285       -7.363721259641205       4.537468309980527
-6.80000000000018         -7.500000000000001       4.542780689214893
-7.000000000000001        -7.1000000000000005      4.5270499423544655
-6.852543366607852        -7.196697758021314       4.521678315397665
-6.600000000000177        -7.500000000000001       4.524820929108561
-6.697325196251601        -7.3219085401847135      4.518223758581384
-7.000000000000001        -6.9                     4.5102647888743075
-6.844543058151768        -7.002415502068829       4.504431646499607
-6.400000000000176        -7.500000000000001       4.506853299680607
-6.488877926766542        -7.338768081787854       4.500735791960977
-7.000000000000001        -6.7                     4.493526317087044
-6.840783722440993        -6.802039816909189       4.487084793638026
-6.200000000000173        -7.500000000000001       4.488885322125543
-6.294964824935185        -7.338062590653678       4.483042257289029
-7.000000000000001        -6.5                     4.476843798732304
-6.839913733648235        -6.601441812571437       4.470034239141191
-6.000000000000171        -7.500000000000001       4.470925002550565
-6.098406418401478        -7.337385006978875       4.465103549504952
-7                        -6.299999999999999       4.460226983782736
-6.839389372808153        -6.401117672740164       4.453097471513076
-5.800000000000169        -7.500000000000001       4.452980852158448
-5.898759460303658        -7.337480055536783       4.4469545448731855
-7.000000000000001        -6.1                     4.443686111879007
-6.83902632048499         -6.200852354603486       4.436250379652065
-5.600000000000166        -7.500000000000001       4.4350619072915825
-5.69904964829895         -7.337757667601948       4.428826781067748
-7.000000000000001        -5.9                     4.427231922620164
-6.838637802585114        -6.00054355402656        4.419477814041812
-5.400000000000164        -7.500000000000001       4.417177749175861
-5.499546336702202        -7.337959839598894       4.410729596886292
-7                        -5.699999999999999       4.4108756644954585
-6.838341344531067        -5.800314680971431       4.402813675742975
-5.200000000000161        -7.5                     4.399338523180948
-5.299823116955319        -7.33803128636984        4.392627586901913
-7.000000000000001        -5.5                     4.394629102226994
-6.838168693433676        -5.60014986004838        4.386272515160712
-5.000000000000158        -7.500000000000001       4.381554957389845
-5.1000000000001595       -7.33805324949231        4.374548565831557
-4.800000000000157        -7.500000000000001       4.363838380245639
-4.900000000000157        -7.33805324949231        4.356498278170368
-7.000000000000001        -5.3                     4.378504522276097
-6.838083581798782        -5.400054569418526       4.369864267742023
-4.600000000000154        -7.500000000000001       4.346200737017227
-4.700000000000155        -7.338053249492309       4.338505607999306
-7                        -5.1                     4.362514736250866
-6.838056818197571        -5.2000134077508955      4.353598181934323
-4.400000000000151        -7.500000000000001       4.32865460479885
-4.500000000000152        -7.338053249492309       4.320581911040082
-7.000000000000001        -4.899999999999999       4.3466730819379755
-6.838053487440793        -5.000001053482644       4.337482461256092
-4.200000000000149        -7.500000000000001       4.31121320573066
-4.30000000000015         -7.338053249492309       4.302739171389029
-7.000000000000002        -4.699999999999998       4.330993421669332
-6.838053249492312        -4.799999999999998       4.3215278601695
-7.000000000000002        -4.499999999999998       4.315490137723955
-6.838053249492312        -4.599999999999998       4.30574802434062
-7.000000000000001        -4.299999999999998       4.300178124458177
-6.838053249492312        -4.399999999999998       4.290158085880425
-4.0000000000001465       -7.500000000000002       4.2938904180999735
-4.100000000000149        -7.338053249492309       4.284990017963284
-3.8000000000001446       -7.500000000000001       4.276700784955645
-3.900000000000147        -7.338053249492311       4.267347740162027
-7.000000000000001        -4.099999999999997       4.285072776853607
-6.838053249492311        -4.1999999999999975      4.274773738103286
-7.000000000000001        -3.8999999999999972      4.270189975173031
-6.838053249492311        -3.999999999999998       4.259611107575051
-7.000000000000002        -3.6999999999999975      4.25554606542014
-6.838053249492311        -3.799999999999997       4.244686732221916
-3.600000000000142        -7.500000000000001       4.2596595198418665
-3.700000000000144        -7.33805324949231        4.2498263029833225
-3.4000000000001394       -7.500000000000001       4.242782509233434
-3.5000000000001417       -7.338053249492309       4.232440361477771
-7.000000000000001        -3.4999999999999964      4.241157835310633
-6.838053249492311        -3.5999999999999965      4.230017535660083
-7                        -3.299999999999996       4.227042485480455
-6.838053249492311        -3.399999999999997       4.215620797579785
-3.2000000000001374       -7.500000000000001       4.226086311232992
-3.300000000000139        -7.338053249492309       4.215205274429494
-7.000000000000001        -3.099999999999996       4.213217595682456
-6.838053249492311        -3.1999999999999957      4.201514120027898
-3.000000000000135        -7.5                     4.209588150072881
-3.1000000000001364       -7.338053249492308       4.198137117125916
-7.000000000000002        -2.899999999999996       4.199701085756263
-6.838053249492311        -2.999999999999996       4.187715389448109
-2.800000000000132        -7.500000000000002       4.193305905951362
-2.9000000000001336       -7.338053249492309       4.181252693035297
-7.000000000000001        -2.6999999999999953      4.186511171198163
-6.838053249492311        -2.7999999999999954      4.17424273435818
-2.60000000000013         -7.500000000000001       4.177258099725977
-2.7000000000001307       -7.338053249492309       4.164569544146802
-7                        -2.4999999999999947      4.173666313208684
-6.838053249492311        -2.5999999999999956      4.161114478571702
-7.000000000000001        -2.2999999999999945      4.161185163155648
-6.838053249492311        -2.3999999999999955      4.148349089910686
-2.4000000000001274       -7.500000000000001       4.161463871987419
-2.5000000000001283       -7.338053249492309       4.1481059596378
-7.000000000000001        -2.0999999999999948      4.149086501459559
-6.838053249492311        -2.1999999999999944      4.135965124404245
-2.2000000000001254       -7.500000000000001       4.145942956046521
-2.3000000000001255       -7.33805324949231        4.131880982412148
-7                        -1.899999999999995       4.137389170986207
-6.83805324949231         -1.9999999999999947      4.123981166032068
-2.000000000000123        -7.500000000000001       4.130715644386438
-2.1000000000001235       -7.338053249492309       4.11591441289811
-7                        -1.6999999999999944      4.1261120051175215
-6.83805324949231         -1.7999999999999947      4.112415762146146
-1.8000000000001202       -7.5                     4.1158027481631745
-1.9000000000001207       -7.338053249492309       4.1002268093033605
-7                        -1.4999999999999942      4.115273750765215
-6.83805324949231         -1.5999999999999945      4.101287354791345
-1.6000000000001182       -7.500000000000002       4.101225549381486
-1.700000000000119        -7.338053249492309       4.084839483300528
-7.000000000000001        -1.2999999999999945      4.104892986691125
-6.838053249492312        -1.399999999999994       4.090614208238702
-7.000000000000002        -1.0999999999999939      4.094988037601945
-6.838053249492312        -1.1999999999999937      4.080414333142297
-7.000000000000001        -0.8999999999999928      4.085576884591788
-6.838053249492312        -0.9999999999999934      4.070705407824035
-1.4000000000001158       -7.500000000000001       4.087005745431171
-1.500000000000117        -7.338053249492309       4.06977448986546
-1.200000000000113        -7.500000000000001       4.073165385741756
-1.3000000000001144       -7.338053249492309       4.055054609724262
-1.000000000000111        -7.500000000000001       4.059726800402164
-1.1000000000001118       -7.33805324949231        4.040703322604579
-7.000000000000002        -0.6999999999999931      4.076677072611789
-6.838053249492312        -0.7999999999999933      4.061504697273094
-0.8000000000001082       -7.5                     4.046712520696479
-0.9000000000001087       -7.338053249492309       4.026744769255103
-7.000000000000002        -0.4999999999999929      4.068305615748475
-6.838053249492312        -0.599999999999993       4.052828970515166
-0.6000000000001053       -7.500000000000002       4.034145191627114
-0.7000000000001068       -7.338053249492309       4.013203700028023
-0.4000000000001034       -7.500000000000002       4.022047476631658
-0.5000000000001047       -7.338053249492311       4.000105407748806
-7.000000000000002        -0.2999999999999927      4.060478901189331
-6.838053249492311        -0.3999999999999928      4.04469441705158
-7                        -0.09999999999999165     4.053212592841428
-6.838053249492311        -0.1999999999999925      4.03711656309403
-7.000000000000001        0.10000000000000853      4.046521535644098
-6.838053249492311        8.058368787070927E-15    4.030110188321731
-7.000000000000002        0.3000000000000078       4.040419661676176
-6.838053249492311        0.20000000000000828      4.023689243874031
-0.20000000000010143      -7.500000000000001       4.010441954848213
-0.3000000000001027       -7.338053249492311       3.987475642662457
-9.947598300641403E-14    -7.500000000000001       3.9993510114435584
-0.10000000000010036      -7.338053249492309       3.9753405074833537
-7.000000000000001        0.5000000000000089       4.03491989919935
-6.838053249492311        0.4000000000000085       4.017866772265692
0.19999999999990337       -7.5                     3.988796721686588
0.09999999999990222       -7.338053249492309       3.9637263310122264
0.3999999999999062        -7.5                     3.9788007296220282
0.2999999999999053        -7.338053249492309       3.9526595194339116
0.5999999999999082        -7.500000000000002       3.969384122372427
0.49999999999990735       -7.338053249492309       3.94216638526931
-7                        0.70000000000001         4.0300340857991905
-6.838053249492311        0.6000000000000091       4.012654829884596
-7.000000000000001        0.9000000000000092       4.02577288678204
-6.838053249492311        0.8000000000000093       4.008064412710347
0.799999999999911         -7.500000000000001       3.9605673012646094
0.6999999999999096        -7.338053249492309       3.9322729549952022
-7.000000000000002        1.1000000000000094       4.022145719958014
-6.838053249492311        1.0000000000000095       4.004105385883288
0.9999999999999138        -7.500000000000001       3.9523698511347636
0.8999999999999124        -7.338053249492309       3.9230047575163702
-7.000000000000001        1.3000000000000105       4.019160687886833
-6.838053249492311        1.2000000000000097       4.000786417760683
-7.000000000000001        1.5000000000000115       4.016824518584276
-6.838053249492311        1.4000000000000108       3.9981149191201824
1.1999999999999158        -7.500000000000001       3.9448104093082725
1.0999999999999148        -7.33805324949231        3.914386596896588
-7.000000000000001        1.7000000000000126       4.015142515583628
-6.838053249492311        1.6000000000000119       3.996096988205369
1.3999999999999186        -7.5                     3.9379065358702543
1.2999999999999177        -7.338053249492309       3.90644231393657
-7.000000000000001        1.9000000000000137       4.0141185181204175
-6.838053249492311        1.8000000000000131       3.9947373623457554
1.5999999999999202        -7.500000000000002       3.9316745869348484
1.4999999999999194        -7.338053249492309       3.899194542220519
-7.000000000000001        2.1000000000000156       4.013754872062655
-6.838053249492311        2.0000000000000147       3.994039376914307
-7.000000000000001        2.3000000000000167       4.014052412046222
-6.83805324949231         2.200000000000016        3.9940049323977473
1.7999999999999226        -7.500000000000002       3.926129592680169
1.6999999999999218        -7.338053249492311       3.8926644650382305
1.9999999999999254        -7.500000000000001       3.9212851419369392
1.899999999999924         -7.338053249492311       3.8868715800357987
-7.000000000000001        2.5000000000000178       4.015010455100137
-6.838053249492311        2.4000000000000177       3.994634470338441
2.199999999999928         -7.500000000000001       3.9171532750984803
2.0999999999999264        -7.33805324949231        3.8818334784984647
-7.000000000000001        2.7000000000000197       4.016626805863637
-6.838053249492311        2.6000000000000187       3.995926958853449
2.39999999999993          -7.500000000000001       3.9137443870558193
2.2999999999999288        -7.33805324949231        3.8775656457985055
2.5999999999999326        -7.500000000000001       3.9110671417532767
2.4999999999999316        -7.33805324949231        3.8740812887706126
-7.000000000000001        2.900000000000021        4.018897773311649
-6.838053249492311        2.8000000000000203       3.9978798883426765
2.7999999999999354        -7.500000000000001       3.9091283998080377
2.699999999999934         -7.338053249492309       3.871391194667742
-7.000000000000001        3.1000000000000214       4.021818198721912
-6.838053249492311        3.0000000000000213       4.000489277863447
-7.000000000000002        3.3000000000000234       4.025381494441127
-6.838053249492312        3.200000000000023        4.003749692476965
-7.000000000000002        3.5000000000000244       4.029579692843485
-6.838053249492312        3.4000000000000234       4.007654271671435
2.999999999999937         -7.500000000000001       3.9079331604444767
2.899999999999936         -7.33805324949231        3.8695036249966717
-7                        3.7000000000000255       4.034403504727054
-6.838053249492311        3.6000000000000245       4.012194768745366
3.1999999999999393        -7.500000000000001       3.9074845187648974
3.099999999999938         -7.338053249492309       3.868424246049703
-7                        3.9000000000000274       4.039842386265271
-6.838053249492311        3.800000000000026        4.01736160080675
-7                        4.100000000000028        4.045884613524992
-6.83805324949231         4.0000000000000275       4.0231439088179775
3.3999999999999417        -7.500000000000002       3.907783639118666
3.2999999999999403        -7.33805324949231        3.8681560964594524
3.599999999999943         -7.500000000000001       3.9088297450489917
3.499999999999942         -7.338053249492311       3.868699590721111
3.799999999999943         -7.500000000000001       3.9106201259991225
3.6999999999999424        -7.33805324949231        3.870052556441951
-7.000000000000001        4.300000000000029        4.052517363481184
-6.83805324949231         4.200000000000029        4.029529626906597
-7.000000000000001        4.500000000000032        4.059726800402158
-6.83805324949231         4.4000000000000306       4.036505559976095
3.9999999999999454        -7.5                     3.9131501606566697
3.899999999999944         -7.338053249492309       3.8722103021535488
-7.000000000000001        4.700000000000033        4.067498166448857
-6.838053249492311        4.6000000000000325       4.044057468497055
-7.000000000000001        4.900000000000034        4.075815875325873
-6.838053249492311        4.800000000000036        4.052170159241649
4.199999999999946         -7.500000000000001       3.9164133565153754
4.0999999999999455        -7.338053249492309       3.875165711885837
-7.000000000000002        5.100000000000035        4.084663607839669
-6.838053249492311        5.00000000000005         4.060827580648316
4.399999999999948         -7.500000000000001       3.92040140494732
4.2999999999999465        -7.33805324949231        3.8789093623512656
4.599999999999948         -7.5                     3.925104250813634
4.4999999999999485        -7.33805324949231        3.8834296584932058
4.79999999999995          -7.500000000000001       3.93051017540598
4.6999999999999496        -7.338053249492309       3.888712983269173
-7.000000000000002        5.300000000000036        4.094024408258511
-6.838053249492309        5.200000000000099        4.070012921465719
-7                        5.500000000000037        4.103880780426399
-6.838053249492298        5.4000000000002935       4.079708711327853
-7.000000000000001        5.700000000000038        4.1142147826570366
-6.838053249492254        5.600000000001072        4.089896921949741
4.999999999999952         -7.500000000000002       3.9366058913107427
4.899999999999951         -7.33805324949231        3.8947438578137414
-7.000000000000001        5.90000000000004         4.125008120520189
-6.838053249492035        5.800000000004129        4.100559067701823
5.199999999999953         -7.500000000000002       3.9433766476274754
5.099999999999952         -7.338053249492311       3.901505108499243
-7.000000000000001        6.100000000000041        4.136242236728682
-6.838053249491057        6.000000000015884        4.111676304416562
-7.000000000000001        6.300000000000043        4.147898397436477
-6.838053249486784        6.200000000059991        4.123229525394684
5.399999999999954         -7.5                     3.950806343856014
5.299999999999953         -7.33805324949231        3.908978037838461
-7.000000000000001        6.500000000000044        4.159957774363651
-6.83805324946882         6.400000000221119        4.135199453710668
-7.000000000000001        6.7000000000000455       4.17240152227015
-6.83805324939604         6.600000000792581        4.147566730054771
5.599999999999955         -7.5                     3.958877650693788
5.499999999999954         -7.338053249492309       3.9171425966092284
5.799999999999956         -7.500000000000002       3.967572135955996
5.699999999999956         -7.338053249492309       3.9259775549976292
-7.000000000000001        6.9000000000000465       4.185210851404166
-6.838053249112335        6.800000002754348        4.16031199549944
-7.000000000000002        7.100000000000048        4.198367094650882
-6.838053248050259        7.000000009252132        4.173415968737402
5.999999999999957         -7.500000000000001       3.976870393844354
5.899999999999957         -7.338053249492311       3.9354606709335047
6.199999999999958         -7.5                     3.9867521758417883
6.099999999999959         -7.338053249492309       3.945568854122957
-7                        7.300000000000049        4.21185176920155
-6.838053244240403        7.200000029951249        4.186859517527503
-7.000000000000001        7.5000000000000515       4.225646632649731
-6.838053231175384        7.400000093189317        4.200623724337187
6.39999999999996          -7.500000000000002       3.9971965215962757
6.299999999999961         -7.338053249492309       3.9562783245618323
6.599999999999963         -7.500000000000002       4.0081818882718006
6.499999999999962         -7.338053249492309       3.967564764549182
-7.000000000000001        7.700000000000053        4.239733733500431
-6.838053188436625        7.6000002781606          4.2146899465717
-7.000000000000001        7.900000000000054        4.254095456147876
-6.83805305530939         7.800000796574104        4.229039872530259
6.7999999999999625        -7.5                     4.019686276982415
6.699999999999963         -7.338053249492309       3.9794034634121793
6.9999999999999645        -7.5                     4.031687355080587
6.899999999999964         -7.338053249492308       3.9917694543174007
-7.000000000000001        8.100000000000055        4.268714560438597
-6.838052661162682        8.000002196719716        4.243655576148973
7.1999999999999655        -7.500000000000001       4.0441625732376725
7.099999999999964         -7.338053249492309       4.004637642679596
7.399999999999968         -7.500000000000002       4.057089276426758
7.299999999999965         -7.33805324949231        4.0179829258009825
-7.000000000000001        8.300000000000056        4.283574215988402
-6.838051556747203        8.200005893529903        4.258519580966733
-7.000000000000001        8.500000000000057        4.2986580314645915
-6.838048676462253        8.400015702686549        4.273614980229161
-7.000000000000001        8.70000000000006         4.313950079079156
-6.8380422051335366       8.600043012429106        4.2889258637615235
7.599999999999968         -7.500000000000001       4.070444808091212
7.499999999999966         -7.338053249492311       4.0317803034809465
-0.707103564234975        -0.7071099981234846      3
-0.8315786282524517       -0.5554070444581802      3
-0.9008037149996577       -0.6943786653251978      3.039526150009528
-0.5553994779927742       -0.8315836818055977      3
-0.7535260423665769       -0.8569628535983269      3.034473011617637
-0.9240309482450496       -0.38231767770449027     3
-1.0242825517606915       -0.5019698993883615      3.043828533984379
-0.9808938056972026       -0.19454393319982605     3
-1.1016977613789072       -0.29539475320599645     3.0445668585948056
-7.000000000000002        8.90000000000006         4.329434914565001
-6.838035760617251        8.80012684384906         4.304439603026053
-7.000000000000001        9.100000000000062        4.345097592926124
-6.837790056725002        9.000224727688597        4.320112012104132
7.799999999999969         -7.500000000000001       4.084206606951457
7.699999999999968         -7.338053249492311       4.04600497943722
7.99999999999997          -7.500000000000002       4.09835229606416
7.89999999999997          -7.338053249492309       4.060632453474153
-0.38230927130847         -0.9240344263454617      3
-0.5721147946651352       -0.990146646962105       3.025366212270794
-0.194540237773805        -0.9808945386161101      3
-0.36407874928746203      -1.1018919989140055      3.0123991711296196
-1                        0                        3
-1.137848846379679        -0.07566445641722487     3.042921179208728
-7.000000000000001        9.300000000000063        4.360923680264969
-6.837309713181728        9.200730201473613        4.3359604096709035
8.199999999999973         -7.500000000000001       4.112859763898788
8.099999999999971         -7.338053249492309       4.07563860442315
8.399999999999974         -7.500000000000001       4.127707237334446
8.299999999999972         -7.338053249492309       4.090999763966022
0                         -1                       3
-0.12100840209386846      -1.1493271664320455      2.989926169117467
-0.9808945386161101       0.194540237773805        3
-1.1296059345725735       0.14549300461275785      3.038712816573618
-7.000000000000001        9.500000000000064        4.37689926199644
-6.836126045940666        9.402341659534144        4.351978756777641
-7.000000000000001        9.700000000000063        4.3930109477593
-6.83577089296484         9.606550522636825        4.368436835834973
8.599999999999973         -7.5                     4.142873346603034
8.499999999999973         -7.338053249492308       4.106692781530646
8.799999999999978         -7.500000000000001       4.15833718231252
8.699999999999974         -7.338053249492309       4.122695080523138
0.19454393319982605       -0.9808938056972026      3
0.11496831244804108       -1.145611588063883       2.9629640536356914
-0.9240344263454617       0.38230927130847         3
-1.1035242761892103       0.37711301632293287      3.03833949303502
-7.000000000000001        9.900000000000064        4.4092458733323525
-6.835989588173126        9.802631676413704        4.384421268258335
-7.000000000000001        10.100000000000067       4.42559169985595
-6.83872093174718         9.992308483962981        4.400245435854072
8.999999999999979         -7.500000000000002       4.1740783447758805
8.899999999999979         -7.338053249492311       4.138984706225819
9.19999999999998          -7.500000000000001       4.190076985947302
9.099999999999978         -7.338053249492311       4.15554036574686
0.38231767770449027       -0.9240309482450496      3
0.3213130225830485        -1.070563610165602       2.9454830364513667
-0.8315836818055977       0.5553994779927742       3
-0.9874459873273029       0.5794265879848821       3.024391725796333
-7.000000000000001        10.300000000000068       4.44203661064933
-6.820317980397595        10.197692080846794       4.415297516251865
-7                        10.5                     4.458569305902061
-6.862417873548561        10.371249466857856       4.433964913221955
9.399999999999979         -7.500000000000001       4.206313844328198
9.29999999999998          -7.33805324949231        4.172341460456125
9.599999999999982         -7.5                     4.2227702732521655
9.49999999999998          -7.338053249492309       4.189368111379806
0.5554070444581802        -0.8315786282524517      3
0.5147962582583021        -1.0177801520222622      2.903658335178474
-0.7071099981234846       0.707103564234975        3
-0.8546867950216948       0.754952463382315        3.012322370286878
-6.8000000000000025       10.5                     4.438344003166527
9.799999999999983         -7.500000000000001       4.239428262991567
9.699999999999982         -7.33805324949231        4.206601178052444
9.999999999999984         -7.500000000000001       4.256270457150092
9.899999999999984         -7.33805324949231        4.224022271345575
0.7071099981234846        -0.707103564234975       3
0.6942846091712086        -0.8954639819147885      2.872837013653262
-0.5554070444581802       0.8315786282524517       3
-0.6947019009839074       0.8997166351851286       2.9984189183591177
-6.600000000000004        10.500000000000002       4.4180476867579275
-6.691771387345208        10.358555253442415       4.415548256949791
10.199999999999983        -7.5                     4.273280163816846
10.099999999999985        -7.338053249492309       4.241613760797488
10.399999999999986        -7.500000000000001       4.290441361959668
10.299999999999988        -7.338053249492309       4.259358776971066
0.8315836818055977        -0.5553994779927742      3
0.8569245869505011        -0.750541012511401       2.8320387198873775
-0.38231767770449027      0.9240309482450496       3
-0.5036352060559652       1.024141141161903        2.9803965162425516
-6.400000000000005        10.5                     4.397686787271358
-6.5023915723425185       10.344269962044168       4.39501411227335
10.599999999999985        -7.500000000000001       4.307738703529908
10.499999999999988        -7.33805324949231        4.277241209357578
10.799999999999988        -7.500000000000002       4.325157511738959
10.699999999999989        -7.338053249492311       4.295245700331201
0.9240344263454617        -0.38230927130847        3
0.9883893566908633        -0.5681477730410962      2.803257411952147
-0.19454393319982605      0.9808938056972026       3
-0.2952083260312844       1.1017986193338694       2.9599827803669747
-6.200000000000007        10.5                     4.377268302154332
-6.304279461594291        10.33954552519252        4.374312764545068
10.99999999999999         -7.5                     4.342683775949993
10.900000189936906        -7.338053389786379       4.313357670715256
11.19999999999999         -7.5                     4.360304143607415
11.100031017294947        -7.3380698442367605      4.331568005804011
0.9808945386161101        -0.194540237773805       3
1.0805363134568509        -0.36505184565235416     2.7887755629371505
0                         1                        3
-0.07119479520912375      1.1381814691410712       2.936679409563385
-6.000000000000009        10.5                     4.356799830403912
-6.1038772400934596       10.338719132241412       4.353639980896457
11.399999999999993        -7.500000000000001       4.3780059096027015
11.300112603231353        -7.338152378134185       4.34987116229111
11.599999999999993        -7.500000000000001       4.3957770034496
11.50024315205029         -7.338362011098618       4.368260836119144
2.1092770545532997        -1.4317018409041875      1
2                         -1.5                     1
2.1119049891695076        -1.5589697525639394      1.2494488825683157
2.0710184643572216        -1.393472303464168       1
1.9443386690860673        -1.3851374036407191      1.285562458376213
2.210154545100515         -1.368653409312178       1
2.216734263928196         -1.4908298012298171      1.1714410241752828
1                         0                        3
1.1308377807521501        -0.14737235528036216     2.7888931860646737
0.194540237773805         0.9808945386161101       3
0.15041472616061816       1.129270161046708        2.9135098836219986
0.38230927130847          0.9240344263454617       3
0.35706593635222006       1.0751238430780379       2.89668167735082
-5.8000000000000105       10.5                     4.336289608476735
-5.902993385516695        10.338837157567706       4.332942012289788